# vtk DataFile Version 3.0
Lime grid
ASCII
DATASET UNSTRUCTURED_GRID
POINTS 11000 float
-4.631347e+12 -2.646975e+13 2.764156e+11
5.319560e+14 -4.104900e+14 1.933990e+13
1.102500e+14 -5.635205e+13 1.560158e+13
1.193970e+12 8.447003e+12 5.409490e+12
-1.492514e+12 2.288837e+12 -1.395020e+12
3.187093e+12 1.097819e+13 5.586395e+11
6.669044e+12 2.569701e+12 5.238605e+13
7.139686e+12 -1.255098e+12 2.180097e+12
8.302533e+12 -5.275291e+11 -6.498869e+11
-5.296034e+13 1.277749e+13 5.448147e+12
1.927721e+13 1.406320e+13 -7.250533e+12
-1.535196e+14 -4.525854e+14 3.913446e+14
5.898796e+12 -6.563610e+12 -1.695664e+12
-1.053480e+12 -1.649136e+12 -2.264519e+12
1.217216e+12 4.814685e+11 2.042289e+12
-2.318783e+13 -1.230375e+12 -2.769697e+13
-2.037144e+12 -1.164447e+13 -1.741588e+12
8.105357e+12 5.135615e+12 -1.491721e+12
-4.597466e+12 -1.775183e+12 6.756633e+12
2.028613e+13 9.867081e+12 -1.660256e+13
-4.726870e+13 -1.794764e+14 -6.271248e+14
-2.048998e+12 4.990353e+12 4.522465e+11
-2.861080e+14 -2.072108e+14 2.725720e+14
-1.179671e+13 -6.539084e+12 1.043630e+13
8.762238e+12 -1.649531e+13 2.490299e+13
-3.944436e+14 -1.420120e+13 -4.565901e+14
1.344882e+14 3.850265e+13 1.378842e+14
-7.842765e+12 6.595879e+12 2.682141e+12
-4.001278e+13 -1.922435e+13 -8.246425e+12
-5.300035e+11 2.558992e+13 5.900012e+12
-1.038377e+12 -7.461254e+12 -9.137556e+12
6.291865e+12 1.251981e+12 -5.228767e+12
2.837490e+12 4.844842e+10 1.829266e+11
-6.654699e+14 7.234951e+11 -1.137559e+14
-4.691007e+12 1.608989e+12 1.036195e+12
1.746757e+12 2.570440e+12 1.109067e+11
-4.936442e+13 -4.964283e+13 -2.364997e+14
1.041417e+13 -4.033560e+12 4.888248e+12
3.394139e+12 5.243549e+13 2.407317e+13
5.525782e+12 -7.617665e+12 -6.171700e+12
1.650362e+12 -1.964860e+12 -3.965039e+12
6.183140e+12 6.288221e+12 -2.886519e+12
-1.946434e+14 -2.016589e+14 -1.425844e+13
1.633095e+12 2.753473e+12 -1.910452e+12
-5.582577e+14 1.586759e+14 -4.556146e+14
4.473200e+13 1.548322e+13 -6.905497e+12
1.321669e+13 -5.283369e+12 1.601700e+12
-2.688133e+12 -2.901373e+12 -1.408774e+12
1.374664e+12 5.690155e+10 6.566375e+11
-7.965594e+11 -3.253519e+12 1.677928e+11
-6.412662e+13 9.815123e+13 2.508699e+14
1.016815e+10 2.564064e+11 2.711434e+12
-1.944971e+13 4.940416e+12 -7.326507e+12
1.614330e+13 3.603286e+13 -2.058212e+13
2.683285e+12 3.544097e+12 2.660674e+14
-2.408508e+14 -9.697447e+13 -1.640048e+14
-1.067061e+13 -9.440406e+12 -6.331551e+12
-5.122434e+13 -2.530629e+12 -2.610833e+14
-4.906258e+14 -7.048132e+13 -3.185867e+13
-3.154144e+13 6.598974e+12 -4.545485e+12
-2.651778e+12 1.211349e+13 -2.358008e+13
-1.275559e+14 -4.145087e+13 1.285349e+14
1.179067e+13 1.000514e+13 5.493196e+12
-1.814520e+12 -4.515959e+12 1.174398e+12
2.920774e+13 8.951234e+13 1.183543e+13
1.193674e+13 -7.358669e+13 1.392952e+13
-1.823896e+12 -8.583060e+09 -3.643133e+11
-1.490997e+13 -4.645283e+12 4.355057e+13
2.647788e+12 -7.004528e+11 1.678801e+12
-2.112502e+12 3.921438e+12 6.273969e+11
6.191486e+14 7.984589e+13 -3.262385e+14
7.623487e+13 -3.837729e+13 1.537233e+14
-2.222954e+12 -1.474687e+12 -8.305313e+11
2.330490e+12 -2.131474e+13 6.483919e+12
1.186182e+12 1.871562e+13 -8.195564e+13
-2.171196e+13 3.494201e+13 -3.174282e+13
-7.520950e+10 -1.126582e+12 1.609059e+12
-2.289770e+13 1.849156e+13 -2.206178e+12
-9.005562e+12 2.006613e+13 2.765404e+12
4.819707e+12 3.633813e+12 -8.526920e+11
1.282464e+14 -3.450076e+14 4.885583e+14
-1.901465e+13 -3.580139e+13 3.128356e+14
-5.693887e+12 3.573317e+12 -2.082447e+13
-2.073376e+12 -8.632603e+11 2.014484e+11
9.591241e+12 4.817908e+13 5.749934e+13
-2.269459e+12 3.044684e+12 1.758416e+11
1.404966e+14 9.427691e+12 2.659629e+13
5.872484e+12 -1.467590e+13 3.427614e+12
-4.185540e+14 -1.926538e+14 -5.045458e+14
-1.166567e+12 -3.402730e+13 7.255585e+13
-6.404688e+12 -1.109006e+13 9.157512e+12
-6.061499e+13 -4.623631e+13 2.495126e+12
-2.057610e+13 1.745396e+14 2.435933e+14
7.725678e+12 1.953723e+13 6.976079e+13
-2.277747e+12 1.063532e+13 2.826570e+12
-3.413301e+13 -2.314567e+13 1.601830e+13
-8.930316e+12 -2.054533e+13 5.239829e+13
4.508223e+13 -1.533269e+13 4.953107e+13
9.535481e+13 1.007100e+14 2.981669e+14
-9.671587e+13 1.094514e+13 8.946271e+13
-9.218052e+13 -3.837205e+14 2.198699e+14
5.404899e+12 6.548973e+12 1.275158e+13
3.823379e+13 2.572302e+13 5.628486e+12
-2.494368e+12 3.475616e+12 -1.061612e+13
-4.468765e+13 -1.927701e+14 -4.200606e+13
-2.990517e+12 3.741339e+12 -4.369182e+11
1.773796e+13 8.961994e+13 -6.889190e+13
2.684255e+13 -1.913918e+14 6.872931e+13
4.255505e+12 -7.135997e+12 2.461842e+12
2.812740e+13 8.655928e+12 -2.814015e+12
6.604743e+12 5.441898e+12 4.679439e+12
-2.766725e+13 -2.505944e+12 2.579553e+13
-7.681556e+13 3.444326e+13 3.645770e+13
5.716860e+12 8.305667e+12 6.176106e+13
5.258632e+12 -4.447429e+12 3.071463e+12
-3.039756e+12 7.327768e+11 1.816280e+12
5.194512e+13 3.616897e+13 -8.181249e+13
-2.413632e+12 -3.194119e+13 -1.072820e+14
-1.712616e+13 -3.861365e+13 -1.933872e+13
8.464752e+12 -8.356285e+12 5.563678e+12
-7.792109e+12 1.876814e+13 -1.893569e+13
-4.845458e+11 -1.349291e+13 2.929038e+12
5.647961e+13 1.202859e+13 -1.062689e+14
1.366443e+14 -1.862672e+13 4.278151e+14
-2.152219e+12 5.961917e+11 1.525492e+12
-8.930597e+13 -1.445615e+13 -9.875992e+13
-5.243840e+13 -7.848569e+12 -2.810267e+12
2.334772e+12 -2.281801e+11 -7.512214e+11
1.642726e+14 8.304151e+12 5.949254e+12
1.982723e+14 8.443215e+13 -1.204282e+14
3.488543e+13 1.661477e+13 -3.916729e+14
-1.997367e+12 2.590393e+12 -9.096427e+12
3.983299e+12 7.114878e+12 1.616361e+13
-1.107603e+11 -1.080229e+12 -1.544953e+12
-1.643519e+13 2.695228e+13 7.363907e+13
-2.707783e+12 2.163577e+13 9.225631e+12
5.119196e+12 8.098143e+11 -3.748272e+12
-3.500792e+13 1.362693e+14 -1.533150e+14
-1.135636e+14 -1.100819e+14 1.389534e+14
2.215504e+14 9.012167e+13 4.751921e+14
-2.127098e+13 2.419368e+13 2.226511e+13
-1.397129e+13 -5.574292e+13 -2.609361e+12
1.400571e+14 -4.995645e+13 8.327973e+13
-4.232483e+12 -1.301657e+13 -7.919473e+12
-1.886856e+12 2.524338e+12 8.610335e+12
2.334653e+14 -6.037507e+14 -1.366809e+14
-3.133299e+13 8.122582e+13 -3.788443e+13
1.055348e+14 -1.214665e+14 2.355033e+14
-4.031739e+13 4.921351e+12 5.330564e+13
-7.649805e+13 3.362942e+13 1.581124e+14
-5.746309e+13 -1.887549e+13 -1.065786e+14
-5.216625e+13 -2.053599e+13 9.503544e+13
-2.356579e+14 -7.229855e+13 1.792144e+14
-2.016579e+13 4.195449e+13 5.210072e+12
7.977109e+12 9.081894e+12 -3.029183e+12
8.869974e+13 -4.172400e+13 -2.436559e+14
3.597009e+12 -8.038229e+12 1.245669e+13
2.694945e+12 -3.145577e+11 -2.720729e+11
5.293321e+14 -3.863457e+14 -1.645436e+14
4.221167e+14 1.163638e+14 -1.094163e+14
-1.063297e+13 4.665890e+12 1.051942e+13
-5.011556e+12 4.204849e+12 1.729229e+12
4.165427e+12 3.534691e+12 6.075687e+12
-6.286818e+13 4.836411e+13 2.857966e+13
5.784524e+12 -6.844205e+13 -5.346638e+13
1.187965e+12 -2.197204e+12 -1.077147e+12
-1.647485e+12 2.774199e+11 -6.030082e+11
9.879783e+11 -4.446929e+12 3.836806e+12
6.132153e+13 1.354414e+13 -4.186603e+13
6.456244e+12 2.074656e+13 1.734920e+13
5.009978e+13 -8.255511e+12 -5.094122e+12
-2.310490e+12 -1.812590e+11 -8.235457e+11
-3.277382e+13 -7.587315e+12 6.004241e+12
1.947632e+12 -2.741918e+12 7.887804e+12
3.370824e+13 1.275859e+14 -3.244108e+13
-4.807165e+14 -3.205630e+14 7.871744e+13
8.094901e+12 -5.062641e+12 -1.267690e+12
3.236319e+12 4.129569e+14 3.803217e+14
1.381452e+14 -1.280092e+14 -3.503961e+14
1.054366e+13 5.742381e+12 -1.813427e+13
-4.272080e+12 3.173455e+13 -3.883477e+13
7.303960e+12 3.776206e+12 -1.177722e+12
-2.200418e+12 -2.279585e+12 3.016606e+12
-5.366022e+13 -5.870246e+13 1.549591e+14
4.361183e+13 -6.894706e+13 -4.489033e+13
2.724696e+12 -1.228582e+12 1.045095e+12
3.222452e+12 8.303669e+10 -6.347385e+11
4.035506e+13 -8.163887e+13 3.685493e+13
-1.954568e+12 -9.344173e+11 3.030073e+12
2.994174e+14 4.534130e+14 -2.175170e+14
3.114367e+14 1.295611e+14 -3.497704e+14
1.277588e+13 -1.652662e+13 3.244507e+13
2.047172e+12 4.874371e+12 4.566208e+12
3.220731e+12 5.814401e+11 3.432164e+11
3.227550e+13 1.195660e+14 2.504742e+14
6.123996e+12 2.032756e+13 -9.614661e+12
2.211107e+13 2.962891e+12 -2.632164e+13
-5.336438e+14 2.991778e+14 -1.262843e+14
-1.037077e+13 -1.287287e+13 1.060640e+13
1.098803e+13 2.628007e+13 -1.745075e+12
3.433560e+13 9.242057e+13 -9.794253e+12
-1.207707e+14 -8.322501e+12 -8.564461e+13
-1.556220e+13 4.642743e+12 -2.076158e+13
-1.717005e+12 3.158455e+12 -1.316161e+12
2.531884e+12 -3.767188e+11 3.301089e+12
-2.499648e+13 8.143346e+12 -1.013499e+13
-3.594641e+11 1.466683e+12 3.157195e+12
5.130638e+11 -4.036883e+12 -5.969557e+11
2.079402e+14 -8.167902e+13 8.231825e+13
-5.670232e+13 4.132962e+11 4.697025e+12
-6.157776e+12 -2.962410e+12 -6.395303e+13
-7.335525e+12 -2.215216e+13 -3.569157e+13
-2.185936e+14 3.930117e+14 -5.955793e+13
-1.296469e+14 -2.309724e+13 -5.821972e+13
6.483829e+13 4.215603e+13 2.501845e+13
-2.040333e+14 2.344674e+14 3.710463e+14
3.089575e+12 -3.000811e+12 1.147170e+12
6.124137e+13 -4.981568e+13 2.627835e+13
-1.239204e+13 7.624285e+12 1.084681e+13
1.074413e+12 3.389327e+12 -9.439884e+11
2.151986e+13 -2.881919e+13 4.865256e+13
6.011451e+14 -2.847665e+14 1.509257e+13
5.680620e+14 -1.180849e+14 3.228794e+14
5.138360e+12 -7.317518e+12 9.757212e+12
-1.184258e+13 7.005774e+12 -1.970597e+12
-1.071752e+13 -1.144345e+13 1.445386e+13
-1.605933e+13 3.415561e+12 -4.931855e+13
-2.396931e+14 -1.605327e+14 -5.603612e+13
-2.524620e+12 -6.081569e+12 -5.602248e+11
-1.430129e+13 -3.631270e+13 4.657491e+11
8.464237e+13 1.721308e+14 1.514838e+14
6.170178e+13 -1.676362e+14 1.486376e+14
1.727783e+13 -9.559920e+12 -1.671651e+13
1.995319e+12 1.173626e+12 1.272702e+12
-1.113315e+13 3.136810e+12 1.709978e+13
4.346763e+13 -1.129987e+14 -1.734565e+14
8.544761e+12 -1.102164e+12 6.920098e+12
1.182830e+13 -1.989967e+13 -2.108166e+13
-5.685579e+11 1.632722e+12 1.563076e+12
2.981671e+13 -4.168476e+12 -1.558960e+12
3.000638e+14 1.819592e+14 -1.700062e+13
-5.954812e+12 2.333082e+13 -1.353871e+13
6.563503e+13 -1.797265e+14 2.448129e+14
2.396059e+12 -6.135353e+11 6.105196e+12
9.415362e+12 6.277955e+12 -3.635101e+12
[...]
POINT_DATA 11000
SCALARS H2_density float 1
LOOKUP_TABLE default
2.092128e+11
3.343739e+08
9.701278e+09
1.480673e+12
1.605192e+13
1.153427e+12
5.404920e+10
2.636639e+12
2.169784e+12
5.040053e+10
2.429244e+11
3.959821e+08
1.871010e+12
1.686717e+13
2.567614e+13
1.156600e+11
1.058211e+12
1.602263e+12
2.160249e+12
1.925837e+11
3.532307e+08
5.155433e+12
7.588941e+08
5.194910e+11
1.559165e+11
4.147783e+08
3.916063e+09
1.346493e+12
7.411349e+10
2.189886e+11
1.077326e+12
2.205823e+12
1.868245e+13
3.314850e+08
5.886215e+12
1.562339e+13
2.483635e+09
1.016609e+12
4.522889e+10
1.192928e+12
6.773451e+12
1.754695e+12
1.918439e+09
1.087085e+13
2.775237e+08
6.602432e+10
7.364379e+11
8.570582e+12
6.500887e+13
1.343237e+13
1.970328e+09
2.036850e+13
3.310597e+11
7.620709e+10
2.133659e+09
1.602023e+09
6.215774e+11
2.134166e+09
6.124450e+08
1.426609e+11
2.128632e+11
4.378106e+09
5.610440e+11
6.027704e+12
1.677705e+10
2.626922e+10
4.367466e+13
7.058408e+10
1.464060e+13
7.467043e+12
3.045195e+08
4.887136e+09
1.935534e+13
3.010977e+11
2.137510e+10
5.595932e+10
3.910228e+13
1.734430e+11
3.074660e+11
4.065738e+12
4.037985e+08
1.518328e+09
3.155242e+11
2.971429e+13
2.641679e+10
1.045485e+13
7.357389e+09
5.775166e+11
3.236192e+08
2.352087e+10
6.095462e+11
2.596816e+10
1.674566e+09
2.846441e+10
1.196378e+12
7.718924e+10
4.652520e+10
3.200455e+10
1.397170e+09
8.644793e+09
7.403315e+08
6.437362e+11
7.010468e+10
1.153309e+12
3.692112e+09
6.531637e+12
1.154007e+10
3.590914e+09
2.012026e+12
1.728706e+11
1.588159e+12
1.051291e+11
1.795218e+10
3.858127e+10
2.656878e+12
1.155464e+13
1.412066e+10
1.205280e+10
7.000303e+10
8.762071e+11
1.958314e+11
7.915635e+11
1.032889e+10
7.477958e+08
2.065562e+13
8.422758e+09
5.359090e+10
2.490093e+13
5.577291e+09
2.479142e+09
9.753855e+08
1.616872e+12
4.609846e+11
4.236852e+13
2.353668e+10
2.695347e+11
3.693043e+12
3.489297e+09
3.408811e+09
5.338530e+08
9.852337e+10
4.565584e+10
5.201469e+09
6.041991e+11
1.797160e+12
3.451840e+08
1.676032e+10
1.857177e+09
3.364085e+10
4.724092e+09
1.006093e+10
1.240991e+10
1.626708e+09
6.886467e+10
9.729341e+11
2.190419e+09
6.492245e+11
2.031926e+13
3.309484e+08
7.417360e+08
6.154572e+11
3.299822e+12
2.263191e+12
2.125517e+10
1.994184e+10
2.041946e+13
4.789165e+13
4.259314e+12
2.652276e+10
1.954320e+11
5.801943e+10
2.497550e+13
1.293847e+11
2.054812e+12
8.181586e+09
4.443169e+08
1.628720e+12
4.793574e+08
9.547548e+08
3.194280e+11
5.963671e+10
2.189851e+12
7.894548e+12
4.980201e+09
1.742485e+10
1.507021e+13
1.399741e+13
1.565398e+10
1.088937e+13
4.410711e+08
6.398825e+08
1.014670e+11
3.096022e+12
1.395219e+13
1.935162e+09
2.781673e+11
1.269106e+11
3.871758e+08
3.916637e+11
1.855151e+11
1.539134e+10
6.870808e+09
2.174614e+11
1.030879e+13
8.658561e+12
1.903215e+11
1.233547e+13
8.931648e+12
2.665306e+09
4.666972e+10
3.652392e+10
8.308763e+10
7.341903e+08
7.287899e+09
2.286765e+10
6.449034e+08
7.605221e+12
2.182513e+10
4.587518e+11
1.116439e+13
4.127271e+10
3.412910e+08
3.426888e+08
8.626103e+11
7.819848e+11
3.322572e+11
5.591939e+10
1.749440e+09
3.459524e+12
9.918095e+10
2.529063e+09
2.797813e+09
2.257209e+11
2.165059e+13
3.545090e+11
3.376622e+09
1.237255e+12
1.541176e+11
2.781316e+13
1.662421e+11
1.224013e+09
1.979966e+11
1.564982e+09
3.482015e+12
1.069454e+12
1.314018e+13
4.300926e+13
1.471311e+12
1.124800e+12
2.465845e+13
4.898091e+12
4.465389e+09
1.034106e+12
1.413866e+13
1.226943e+09
5.424905e+10
1.327891e+11
1.483785e+11
4.227496e+08
7.090444e+10
5.352893e+10
4.413871e+08
2.826548e+13
1.062211e+11
2.872400e+09
1.477023e+12
2.186277e+12
1.724429e+13
7.293116e+11
2.145145e+12
2.252012e+11
1.307991e+09
5.992957e+11
2.075968e+13
3.045114e+10
2.097070e+12
6.184495e+11
2.074014e+13
1.191866e+09
1.154032e+12
2.063718e+13
5.742734e+13
6.773155e+08
2.310861e+13
5.187152e+12
1.475886e+10
4.597173e+12
2.107766e+09
2.851002e+13
5.866278e+11
4.670112e+10
4.233356e+12
1.743909e+10
2.278029e+09
2.598901e+09
9.253997e+11
6.030312e+12
1.277658e+11
2.021855e+12
1.488296e+10
5.442907e+10
4.329921e+09
3.754752e+09
7.417189e+08
3.772243e+10
1.112676e+11
2.982351e+08
1.057608e+13
3.249092e+09
7.898784e+09
9.594744e+12
2.584777e+13
7.281765e+12
1.770430e+13
6.724040e+12
6.827364e+08
5.830762e+10
1.585213e+11
1.037169e+13
5.366531e+09
3.042699e+10
5.347912e+12
1.017152e+12
6.958664e+12
2.885725e+13
9.231415e+11
3.549057e+13
4.456961e+12
1.810062e+12
5.184019e+10
1.134408e+09
1.727549e+13
5.708660e+11
4.986014e+12
2.457887e+10
1.935455e+10
1.576914e+11
5.979041e+09
5.818895e+10
2.943850e+12
1.726819e+12
8.762350e+12
3.982194e+11
9.486314e+10
2.423052e+09
2.497497e+11
1.815017e+13
1.125288e+13
8.219281e+11
3.090192e+12
1.627652e+09
1.726926e+11
4.134262e+08
1.703038e+12
7.560683e+11
8.461257e+12
1.425802e+11
1.572944e+10
1.168227e+09
5.072205e+11
6.874451e+12
2.737340e+12
2.316423e+13
3.205477e+09
1.366930e+12
1.367566e+12
6.335506e+13
3.440054e+08
2.344800e+11
1.696942e+11
5.535615e+11
1.678417e+13
1.176919e+11
1.558867e+13
4.247670e+12
6.349241e+08
6.152295e+11
1.425853e+09
6.205447e+12
3.532404e+11
8.552190e+10
3.908981e+12
1.326673e+12
6.505819e+09
7.937894e+12
1.287199e+09
6.460644e+10
1.643283e+12
4.292004e+13
4.427359e+08
8.058537e+08
1.128966e+10
2.433038e+12
7.649583e+10
6.260711e+11
1.718772e+10
1.545024e+09
1.222452e+11
1.628630e+10
4.512661e+13
1.713818e+11
1.716161e+09
3.867907e+10
8.876656e+12
3.545502e+10
6.809583e+09
3.678576e+13
1.905862e+12
1.278691e+11
1.715190e+11
2.864016e+09
2.994232e+09
7.718448e+09
1.884380e+11
1.265463e+12
3.590408e+12
2.810911e+12
6.234641e+11
1.047048e+11
7.724997e+10
4.276919e+08
1.401449e+12
2.334261e+11
1.274685e+09
3.312570e+12
3.773979e+09
1.931390e+13
4.167275e+10
1.225196e+12
2.745149e+13
6.100915e+12
1.233576e+11
3.814739e+12
2.941661e+12
1.822624e+09
3.290904e+09
9.551813e+10
1.036822e+10
5.629207e+09
1.011228e+09
7.220369e+12
6.786836e+12
5.971405e+11
6.953802e+11
7.365361e+10
5.290630e+10
4.250382e+11
5.481607e+12
3.227965e+09
3.140527e+13
6.010161e+12
1.425758e+11
2.047946e+11
1.517365e+11
3.968845e+11
6.019757e+12
3.312612e+12
2.346337e+13
7.854683e+12
4.554146e+12
2.151210e+12
7.656123e+10
4.404417e+09
2.060429e+09
5.052225e+10
4.171772e+11
9.802343e+10
3.849838e+09
1.125253e+10
2.115205e+11
2.039524e+10
8.523312e+11
4.836381e+08
1.976194e+11
2.976263e+13
4.468937e+08
1.188712e+13
4.870600e+08
2.182173e+12
6.656714e+13
4.892564e+10
1.328555e+10
3.248320e+10
4.656894e+13
2.329392e+13
5.473014e+12
1.044372e+12
2.167838e+09
3.178577e+10
1.206341e+12
4.840770e+12
1.517866e+11
3.327703e+11
7.596143e+10
2.071417e+13
6.523469e+11
1.091291e+11
1.208679e+13
7.622638e+08
1.545713e+13
1.813501e+09
5.518434e+12
2.631813e+09
1.811754e+10
6.642484e+10
6.879220e+08
4.830764e+08
4.409734e+09
1.584614e+13
3.910255e+11
1.377549e+09
6.322429e+09
1.980254e+11
3.155905e+11
1.567535e+12
9.918410e+12
5.131911e+12
4.674085e+08
1.776844e+10
3.672362e+11
1.254006e+09
1.096560e+11
3.635813e+11
1.042939e+13
9.240465e+08
3.729641e+10
4.111079e+10
6.803525e+09
6.662421e+11
3.409557e+10
6.962410e+08
1.214275e+09
2.144377e+09
7.551430e+12
3.929461e+09
4.284674e+11
2.730460e+12
2.204526e+11
2.130000e+13
3.740997e+09
6.389357e+10
1.552084e+12
1.471124e+12
1.207339e+09
4.662427e+10
6.755563e+08
4.588053e+12
9.919482e+12
2.095422e+09
4.517997e+08
6.604444e+08
7.281352e+09
8.435960e+11
8.432432e+10
1.182722e+11
4.491565e+09
6.690013e+09
2.305910e+09
2.138710e+11
9.812003e+08
2.322127e+12
1.212484e+10
2.928304e+11
5.738761e+10
4.475887e+11
8.406897e+12
4.661285e+09
1.650587e+10
9.563949e+09
4.145639e+10
6.455412e+13
1.132734e+10
6.306723e+09
5.384236e+11
6.554413e+13
1.104382e+10
1.502142e+09
3.760328e+10
3.717378e+12
3.563933e+11
7.653442e+10
2.773176e+11
9.221486e+09
2.294364e+11
3.422140e+09
8.227284e+09
2.703152e+13
5.223526e+08
5.308234e+11
1.279908e+10
2.119205e+13
7.946422e+09
2.834931e+12
1.083185e+11
1.823748e+13
7.080460e+10
6.945217e+12
7.199639e+08
1.476202e+13
7.496449e+12
1.367155e+10
4.306895e+12
1.528508e+10
5.696990e+08
2.068231e+13
5.689282e+08
1.191326e+12
3.426351e+08
2.594530e+13
1.022239e+10
7.591597e+12
1.592338e+13
1.061064e+11
3.609827e+08
3.897924e+13
2.378195e+13
1.295086e+12
1.507736e+10
1.454064e+11
1.067221e+13
7.093564e+08
1.053561e+12
9.267682e+12
4.530409e+09
4.376282e+08
7.211617e+08
4.861577e+12
1.562973e+12
1.406169e+10
3.629596e+09
2.105754e+12
2.824508e+08
3.377215e+13
3.906539e+12
2.922901e+12
7.166352e+08
2.276822e+12
4.345307e+08
2.467653e+11
3.575345e+08
5.352389e+08
8.936622e+10
3.420906e+09
1.221184e+10
4.150402e+08
2.770518e+12
4.113918e+08
1.344705e+13
1.276533e+09
3.952798e+10
3.048228e+13
3.483928e+08
6.699707e+08
2.180326e+10
6.779601e+08
1.269945e+10
1.236120e+11
6.270421e+09
3.149232e+10
1.301828e+12
7.955356e+11
6.707673e+12
1.464875e+09
2.542267e+10
2.934162e+13
2.291180e+09
5.629277e+12
2.289847e+12
2.822839e+09
1.623213e+10
2.464225e+10
1.449528e+10
3.986208e+13
4.222665e+08
7.111958e+11
2.564156e+10
1.411763e+10
7.600265e+11
4.513910e+13
1.654440e+13
8.197521e+12
2.047554e+11
1.187708e+11
6.784852e+11
2.198727e+11
3.369250e+11
1.450586e+11
5.449507e+08
6.633129e+09
2.217423e+10
3.018512e+13
2.516491e+12
2.598484e+11
5.048683e+12
1.884683e+13
2.393667e+12
1.290038e+10
6.745876e+13
8.847546e+12
1.101635e+12
1.446083e+13
2.010021e+12
1.569052e+12
9.571151e+12
8.445024e+08
1.666947e+12
3.436655e+08
3.912584e+10
1.442606e+13
6.038576e+12
2.175910e+10
1.689307e+12
1.076429e+11
3.143531e+10
1.419410e+11
2.945517e+08
1.880000e+09
1.201479e+10
1.481643e+13
5.148086e+11
3.089469e+10
7.133057e+12
2.733738e+13
6.601509e+10
1.714271e+09
1.020202e+09
2.965785e+09
9.252199e+10
1.159782e+12
4.154920e+10
5.591215e+12
1.187437e+13
6.347430e+12
4.031810e+09
9.983695e+08
9.737621e+09
2.161791e+13
7.522494e+12
1.424954e+12
3.182942e+13
8.871487e+11
3.650386e+12
8.005726e+12
4.779494e+13
1.617322e+10
1.382399e+13
2.144393e+10
3.671972e+12
5.968817e+09
2.003704e+12
5.055484e+10
1.065753e+11
3.189454e+10
3.083095e+08
2.548401e+11
2.712930e+10
3.378999e+11
2.700246e+09
1.683794e+10
4.060340e+12
4.534390e+12
9.005984e+12
5.927065e+10
2.142274e+13
1.452979e+10
1.198010e+10
1.588725e+13
4.039540e+13
1.139307e+12
8.781347e+12
2.988750e+12
6.910322e+09
1.311671e+10
4.423748e+13
3.235250e+10
3.490754e+08
4.554316e+08
3.573670e+10
9.677429e+08
3.632301e+13
2.377107e+12
2.638931e+10
1.857683e+13
8.289329e+09
1.054566e+09
5.546023e+10
6.980756e+12
4.838881e+09
2.921236e+12
6.449006e+08
3.858177e+13
2.302113e+09
6.358979e+08
3.298323e+13
2.390480e+10
2.251022e+10
6.724323e+10
1.069998e+12
2.689550e+11
4.732786e+11
6.981033e+12
1.714334e+13
6.385013e+10
6.895976e+08
7.274117e+09
7.854789e+08
4.998034e+12
1.738205e+12
1.163666e+09
7.190652e+11
8.135268e+12
9.220794e+08
5.955775e+10
4.034992e+10
7.500727e+10
3.724719e+11
1.948935e+09
4.013418e+10
7.263623e+11
1.751704e+12
9.697839e+12
1.382070e+10
2.777263e+08
7.557204e+10
1.011350e+10
4.947277e+12
9.153088e+09
3.923986e+08
2.883499e+10
1.277383e+11
3.460538e+09
8.519810e+09
4.980333e+11
3.164738e+13
1.249634e+13
2.672436e+10
5.131555e+12
5.271235e+08
3.678039e+08
1.652815e+11
2.392819e+12
1.619053e+11
9.132482e+10
6.905765e+11
8.098680e+09
3.504994e+08
7.851603e+12
2.923228e+10
1.122573e+12
5.120149e+10
1.789026e+11
4.752869e+12
3.724208e+13
1.397387e+11
1.901058e+13
3.828815e+08
7.240664e+08
2.384010e+09
4.051116e+13
3.648936e+11
2.976255e+10
4.359835e+13
1.146801e+12
1.109215e+10
2.207573e+13
1.677762e+13
5.732350e+09
1.256335e+13
3.024887e+08
1.107469e+10
4.591210e+13
9.375132e+12
5.195602e+12
1.163386e+13
1.657223e+13
5.856570e+08
3.606769e+08
7.451982e+08
3.056757e+09
2.591216e+09
5.757963e+10
4.293625e+12
3.427142e+11
9.970528e+09
8.776076e+12
3.137748e+12
4.446605e+13
1.131648e+10
7.276995e+08
3.436500e+12
2.689767e+11
8.850459e+12
5.160346e+10
3.498792e+09
4.945023e+09
3.088609e+08
1.817260e+10
7.842331e+11
3.032874e+09
2.272258e+11
2.311625e+11
6.349926e+11
5.957436e+12
3.458705e+09
1.057576e+12
4.780370e+13
6.978096e+09
2.266848e+12
1.340844e+10
3.373264e+09
1.337749e+10
2.696928e+12
4.494491e+10
1.079641e+11
5.570554e+11
1.673737e+11
1.975276e+13
6.152222e+10
3.323076e+11
1.329485e+13
1.056416e+09
3.781526e+13
1.240499e+13
1.556289e+12
1.505231e+09
6.281651e+08
7.800396e+12
1.074271e+13
1.848603e+12
6.479055e+13
1.455868e+13
2.437758e+10
5.877127e+09
4.074949e+11
1.167954e+10
2.415962e+13
4.495194e+11
6.452672e+10
3.296567e+08
3.322999e+10
3.317866e+11
8.947979e+08
3.251266e+12
3.689015e+12
2.734234e+13
2.559617e+13
1.145220e+12
1.621318e+09
4.443879e+09
1.021823e+13
9.219791e+11
1.120173e+09
5.707522e+11
7.645132e+10
9.336559e+11
1.623767e+13
4.859224e+10
2.022317e+10
1.283374e+13
3.806190e+11
1.743525e+11
3.293810e+10
5.288874e+12
2.722430e+13
1.326978e+09
7.011439e+12
2.564526e+11
1.209687e+09
3.504369e+12
9.168897e+08
2.564089e+12
3.279318e+09
1.025110e+11
7.863997e+12
4.439124e+08
3.061801e+13
1.788427e+12
9.707534e+11
1.453151e+11
5.473052e+12
1.674511e+09
2.755865e+10
3.313397e+13
1.077402e+12
1.307339e+12
3.703849e+09
3.706580e+08
4.655132e+12
3.998957e+11
1.409348e+09
4.197836e+13
4.601884e+09
1.205748e+12
8.108199e+10
8.052216e+08
2.661095e+09
3.234495e+08
8.135128e+12
7.930987e+12
6.042477e+10
4.279235e+11
4.498975e+13
3.634952e+11
4.659688e+13
2.517211e+09
5.160183e+08
8.103568e+08
1.156342e+11
4.061619e+08
1.026790e+12
1.650657e+09
6.467350e+12
1.853085e+10
1.562527e+13
5.330976e+10
9.648274e+09
1.688383e+10
3.596395e+11
5.067931e+10
3.388594e+08
2.726058e+10
1.456907e+12
1.146880e+10
8.708827e+11
5.826363e+10
1.229522e+10
6.808738e+12
8.986254e+10
2.740902e+09
2.977153e+13
5.140373e+10
7.922242e+08
4.633204e+08
7.309039e+08
3.812288e+12
1.043715e+13
1.227816e+11
2.986711e+09
1.148553e+09
3.349902e+12
8.165234e+09
1.069234e+11
2.094604e+13
3.886148e+13
7.736032e+10
2.785388e+13
2.956624e+12
1.418987e+11
5.221257e+11
2.265882e+12
3.472957e+11
3.781559e+09
6.325861e+13
8.035750e+09
2.901955e+10
1.223086e+11
1.969379e+09
3.283182e+13
2.625416e+13
3.459102e+08
9.192490e+11
1.626736e+10
1.899386e+12
2.795255e+08
1.088812e+13
5.818540e+11
1.890221e+11
1.481441e+10
3.409472e+11
5.923624e+13
6.602446e+12
8.697977e+08
9.831568e+09
3.995137e+09
3.553385e+08
1.309894e+10
3.843620e+09
3.353852e+10
1.100642e+10
4.239092e+09
6.715457e+11
7.899999e+09
4.253988e+12
1.319592e+09
4.610182e+10
4.135717e+13
1.031319e+09
1.786193e+11
1.801592e+09
1.480233e+13
6.509621e+09
1.715782e+12
4.419008e+10
3.941838e+12
1.027375e+13
8.393345e+12
3.903411e+13
6.574747e+13
6.660062e+13
1.387315e+12
2.959795e+13
1.795613e+11
8.445652e+11
1.519925e+10
8.527386e+12
4.115709e+08
3.399280e+08
1.742750e+13
4.678596e+08
2.171149e+09
3.105167e+10
3.450291e+08
2.467897e+12
3.725674e+12
3.420598e+10
9.740188e+12
1.214365e+11
5.356587e+08
3.872674e+09
1.896278e+13
1.334496e+11
9.342123e+12
1.078667e+09
2.315317e+10
7.273831e+12
1.103149e+12
1.146578e+12
9.142373e+08
1.394114e+13
1.085026e+13
1.007652e+12
9.266575e+10
3.940010e+12
7.097057e+12
5.137488e+12
1.269614e+09
3.796645e+13
4.396557e+12
2.005078e+09
1.687120e+11
6.216880e+12
8.261164e+10
1.219965e+12
2.212676e+13
7.524555e+11
1.081809e+13
7.206096e+10
3.775950e+10
2.391696e+09
8.530244e+09
3.571447e+09
5.024537e+08
1.647334e+11
1.434241e+11
9.748816e+11
3.933746e+09
3.949679e+10
1.196850e+11
4.034992e+12
2.044949e+12
4.845668e+13
1.873355e+11
1.122880e+13
1.020673e+11
1.200019e+11
3.737568e+08
2.737204e+11
5.102194e+13
6.072774e+08
1.599240e+09
5.193346e+13
3.352631e+12
2.199868e+09
3.509258e+08
2.000073e+10
5.858310e+10
1.576383e+11
6.399953e+13
1.203878e+09
7.896799e+12
1.033738e+11
6.092993e+09
2.429341e+12
8.747081e+10
1.132710e+12
4.096505e+11
3.339281e+08
5.952190e+12
1.334330e+12
2.482377e+11
9.278307e+09
5.703692e+11
1.388318e+09
2.525765e+10
4.147563e+13
4.405330e+12
1.283611e+10
2.068793e+09
3.249505e+11
3.504858e+11
4.037898e+08
5.311815e+12
9.925581e+09
1.518722e+10
1.333972e+13
1.344904e+13
5.497997e+08
2.113497e+10
4.311894e+09
1.911376e+10
3.356777e+10
1.007578e+13
1.900025e+12
1.007989e+12
2.776273e+12
6.024220e+13
1.152011e+10
1.845048e+12
4.070463e+08
4.291135e+12
7.670997e+10
1.189284e+09
1.089836e+11
6.619556e+13
5.728566e+10
3.627735e+13
4.250360e+12
1.081442e+10
8.837417e+10
2.903380e+11
5.539757e+10
2.100021e+10
6.223959e+09
1.343543e+09
4.675279e+12
4.484315e+12
1.143532e+13
3.542819e+08
1.245321e+13
3.612410e+09
3.086575e+10
6.666467e+08
1.599618e+10
6.116918e+08
3.218294e+11
5.770232e+11
6.752840e+11
6.457942e+09
1.078861e+12
1.152777e+11
2.116874e+09
6.678898e+13
2.696483e+13
1.683052e+13
6.639639e+10
1.122734e+11
1.862570e+11
9.181353e+12
1.145811e+09
5.594308e+12
6.587308e+13
5.101265e+10
6.409324e+08
4.177987e+13
5.877039e+08
4.579989e+10
3.887499e+11
1.053609e+09
4.669951e+08
6.554844e+13
1.875708e+13
2.369648e+12
1.068807e+13
1.680968e+09
6.480316e+12
7.324940e+12
1.665853e+10
2.119407e+10
4.064310e+10
3.793512e+10
2.801151e+11
3.497936e+08
6.339716e+10
1.396788e+12
3.219160e+12
1.559458e+12
6.469884e+12
2.158793e+09
1.063143e+13
6.173016e+12
4.492419e+10
6.971049e+11
1.192801e+12
4.169030e+09
2.154707e+12
6.337856e+13
1.154822e+13
8.136040e+08
2.692217e+13
4.816207e+09
9.570427e+08
9.581594e+09
1.409150e+13
4.722119e+08
1.384918e+13
1.706868e+10
1.757755e+11
1.120869e+11
6.748522e+13
1.337450e+12
2.100361e+09
3.823839e+12
2.708858e+11
4.405087e+09
1.973596e+12
8.514554e+08
7.130394e+12
1.405321e+09
1.924927e+12
7.252599e+09
1.120846e+09
1.233642e+10
3.792650e+11
5.097169e+08
5.670338e+13
7.694641e+10
2.989066e+10
7.264473e+12
5.092382e+09
1.280850e+12
1.875367e+12
3.240535e+10
6.228504e+11
2.855233e+09
1.206134e+13
3.215247e+13
1.974977e+11
2.688439e+11
6.603525e+13
2.035485e+10
7.261598e+08
1.922258e+09
6.694394e+09
3.275259e+12
5.604682e+10
2.036228e+13
4.602043e+10
1.584765e+12
6.908270e+12
5.809567e+09
5.067345e+09
3.035775e+10
4.016281e+08
8.279444e+08
4.131025e+10
1.714185e+10
4.204687e+12
8.167382e+09
6.460313e+12
3.393576e+08
5.936884e+12
3.525734e+08
3.093950e+10
1.445201e+12
1.500250e+11
1.260936e+11
7.333266e+09
2.807539e+13
2.738240e+08
1.354277e+11
3.262661e+13
1.407993e+12
1.138302e+12
7.254458e+12
2.661954e+12
1.502009e+10
6.834293e+11
5.534974e+12
9.268687e+08
7.728448e+12
7.916234e+11
1.528289e+11
5.489665e+12
2.132933e+11
2.527943e+12
6.137625e+11
1.256669e+11
2.647443e+11
9.540648e+09
3.588841e+11
3.471610e+11
1.794724e+10
4.660076e+12
4.620348e+12
2.639432e+13
1.876874e+09
1.849561e+12
1.632476e+10
2.054626e+11
1.397919e+11
5.909883e+08
1.720235e+12
2.942824e+12
1.097205e+11
2.398726e+13
4.822508e+12
4.694480e+12
1.098982e+11
2.053922e+09
2.003884e+13
3.309862e+08
6.148167e+13
6.032178e+08
2.407054e+10
2.383327e+09
6.971843e+10
1.010159e+11
1.029403e+13
4.891579e+12
8.478612e+12
6.415272e+08
3.345014e+12
5.699379e+12
1.540346e+09
1.318807e+11
3.003768e+13
1.968846e+12
4.589315e+09
2.817201e+09
6.828984e+08
2.410782e+09
1.144980e+10
6.635459e+13
1.411814e+13
2.244940e+12
4.870051e+12
5.815854e+08
4.166664e+08
4.372913e+08
3.384396e+09
1.908744e+12
4.082898e+12
1.134396e+10
2.368567e+09
3.446185e+11
9.055907e+11
5.669637e+11
6.193838e+11
2.097584e+11
3.596342e+09
2.228789e+10
3.376786e+08
3.807273e+10
7.819341e+08
2.709420e+13
9.101594e+11
5.189650e+12
2.694563e+12
5.779026e+11
1.660448e+10
2.164544e+13
3.969015e+09
6.172801e+09
6.984441e+12
3.664103e+11
2.919737e+08
7.239204e+11
1.247532e+10
1.162587e+12
2.840164e+13
4.473536e+13
4.782403e+10
3.911256e+09
7.541834e+12
3.192276e+10
3.259075e+10
5.079199e+09
7.494704e+10
3.257587e+10
3.148088e+08
7.024574e+09
5.050206e+11
2.361866e+13
1.514607e+12
8.417045e+08
3.413768e+10
2.291266e+11
3.049856e+12
3.864430e+12
1.065446e+09
1.380186e+10
3.564308e+13
1.821108e+11
1.284012e+12
6.133857e+08
3.268521e+10
4.294725e+08
6.798487e+09
5.350782e+08
9.148190e+08
4.092772e+08
7.854010e+08
8.574787e+10
6.823726e+11
2.861899e+09
4.378276e+12
5.550134e+10
3.667977e+11
1.263182e+11
2.830283e+13
2.883991e+13
2.201530e+10
7.798793e+12
2.772162e+13
2.268797e+13
4.828969e+12
3.303154e+08
1.910709e+13
7.582036e+11
1.062867e+09
1.189426e+12
5.203703e+10
6.887947e+12
2.709031e+08
3.673790e+11
4.336816e+11
3.417612e+13
3.998469e+11
5.521967e+12
2.967770e+09
2.738137e+09
1.958563e+12
3.754828e+08